 Gaussian 09, Revision D.01,
 Gaussian 09:  ES64L-G09RevD.01 24-Apr-2013

 ----------------------------------------------------------------------
 #P rhf/STO-3G scf(conventional) Iop(3/33=6) Extralinks=L316 Noraff Sym
 m=Noint Iop(3/33=1) pop(full)
 ----------------------------------------------------------------------

 -----
 title
 -----
 Symbolic Z-matrix:
 Charge =  0 Multiplicity = 1

                         Standard orientation:
 ---------------------------------------------------------------------
 Center     Atomic      Atomic             Coordinates (Angstroms)
 Number     Number       Type             X           Y           Z
 ---------------------------------------------------------------------
      1          1           0        0.000000    0.866812   -0.541782
      2          8           0        0.000000    0.000000    0.135446
      3          1           0        0.000000   -0.866812   -0.541782
 ---------------------------------------------------------------------

 SCF Done:  E(RHF) =  -74.9420799227     A.U. after    7 cycles

 The electronic state is 1-A1.
 Alpha  occ. eigenvalues --  -20.26289  -1.20970  -0.54796  -0.43653  -0.38759
 Alpha virt. eigenvalues --    0.47762   0.58814

 Mulliken charges:
               1
     1  H    0.126573
     2  O   -0.253146
     3  H    0.126573
 Sum of Mulliken charges =   0.00000

 Dipole moment (field-independent basis, Debye):
    X=              0.0000    Y=              0.0000    Z=             -1.5340  Tot=              1.5340
 Quadrupole moment (field-independent basis, Debye-Ang):
   XX=             -6.2076   YY=             -4.3168   ZZ=             -5.3884
   XY=              0.0000   XZ=              0.0000   YZ=              0.0000

 Normal termination of Gaussian 09 at Sat Aug 24 09:52:23 2013.
